# vtk DataFile Version 2.0
trapezoids, Created by Gmsh
ASCII
DATASET UNSTRUCTURED_GRID
POINTS 81 double
0 0 0
1 0 0
1 1 0
0 1 0
0 0.15 0
0 0.5 0
0.25 0.5 0
0.25 0.35 0
0.25 0 0
0.5 0 0
0.75 0 0
0.5 0.5 0
0.75 0.5 0
1 0.5 0
0.5 0.15 0
0.75 0.35 0
1 0.15 0
0 0.85 0
0.25 0.65 0
0.5 0.85 0
0.75 0.65 0
1 0.85 0
0.25 1 0
0.5 1 0
0.75 1 0
0 0.1124999999999058 0
0 0.3249999999995064 0
0.1249999999996736 0.5 0
0.25 0.3875000000000544 0
0.1250000000004437 0.2500000000003549 0
0.25 0.1750000000004285 0
0.1250000000005148 0 0
0.3749999999999997 0 0
0.6249999999999997 0 0
0.8749999999999997 0 0
0.3749999999999997 0.5 0
0.6249999999999997 0.5 0
0.8749999999999997 0.5 0
0.3749999999998705 0.2500000000001036 0
0.6249999999998782 0.2499999999999026 0
0.8749999999998705 0.2500000000001036 0
0.5 0.03750000000009505 0
0.5 0.3250000000004557 0
0.75 0.3875000000000544 0
0.75 0.1750000000004285 0
1 0.3250000000004557 0
1 0.03750000000009505 0
0 0.6749999999996092 0
0 0.962499999999783 0
0.1249999999996634 0.7500000000002693 0
0.3749999999998624 0.7499999999998899 0
0.6249999999998623 0.7500000000001101 0
0.8749999999998623 0.7499999999998899 0
0.25 0.6125000000001192 0
0.5 0.6749999999996092 0
0.75 0.6125000000001192 0
1 0.6749999999996092 0
0.1249999999996736 1 0
0.3749999999999997 1 0
0.6249999999999997 1 0
0.8749999999999997 1 0
1 0.8874999999998808 0
0.25 0.8250000000003908 0
0.5 0.8874999999998808 0
0.75 0.8249999999994142 0
0.1250000000001572 0.1311523437501131 0
0.1250000000000192 0.3688476562499861 0
0.1249999999998912 0.6311523437499997 0
0.1249999999998912 0.8811523437500728 0
0.3749999999999774 0.8688476562500264 0
0.3749999999999774 0.6311523437499375 0
0.3749999999999787 0.3688476562501007 0
0.3749999999999787 0.1188476562501029 0
0.62499999999998 0.1188476562500699 0
0.62499999999998 0.3688476562500677 0
0.6249999999999774 0.6311523437499736 0
0.6249999999999774 0.8688476562499023 0
0.8749999999999775 0.8688476562498662 0
0.8749999999999775 0.6311523437499375 0
0.8749999999999788 0.3688476562501007 0
0.8749999999999788 0.1188476562501029 0

CELLS 64 320
4 8 31 65 30
4 7 30 65 29
4 4 29 65 25
4 0 25 65 31
4 7 29 66 28
4 4 26 66 29
4 5 27 66 26
4 6 28 66 27
4 5 47 67 27
4 17 49 67 47
4 18 53 67 49
4 6 27 67 53
4 22 62 68 57
4 18 49 68 62
4 17 48 68 49
4 3 57 68 48
4 19 50 69 63
4 18 62 69 50
4 22 58 69 62
4 23 63 69 58
4 18 50 70 53
4 19 54 70 50
4 11 35 70 54
4 6 53 70 35
4 11 42 71 35
4 14 38 71 42
4 7 28 71 38
4 6 35 71 28
4 8 30 72 32
4 7 38 72 30
4 14 41 72 38
4 9 32 72 41
4 14 39 73 41
4 15 44 73 39
4 10 33 73 44
4 9 41 73 33
4 15 39 74 43
4 14 42 74 39
4 11 36 74 42
4 12 43 74 36
4 11 54 75 36
4 19 51 75 54
4 20 55 75 51
4 12 36 75 55
4 24 64 76 59
4 20 51 76 64
4 19 63 76 51
4 23 59 76 63
4 21 52 77 61
4 20 64 77 52
4 24 60 77 64
4 2 61 77 60
4 20 52 78 55
4 21 56 78 52
4 13 37 78 56
4 12 55 78 37
4 13 45 79 37
4 16 40 79 45
4 15 43 79 40
4 12 37 79 43
4 10 44 80 34
4 15 40 80 44
4 16 46 80 40
4 1 34 80 46

CELL_TYPES 64
9
9
9
9
9
9
9
9
9
9
9
9
9
9
9
9
9
9
9
9
9
9
9
9
9
9
9
9
9
9
9
9
9
9
9
9
9
9
9
9
9
9
9
9
9
9
9
9
9
9
9
9
9
9
9
9
9
9
9
9
9
9
9
9

CELL_DATA 64
SCALARS CellEntityIds int 1
LOOKUP_TABLE default
1
1
1
1
2
2
2
2
3
3
3
3
4
4
4
4
5
5
5
5
6
6
6
6
7
7
7
7
8
8
8
8
9
9
9
9
10
10
10
10
11
11
11
11
12
12
12
12
13
13
13
13
14
14
14
14
15
15
15
15
16
16
16
16
