# vtk DataFile Version 2.0
corner_mesh, Created by Gmsh
ASCII
DATASET UNSTRUCTURED_GRID
POINTS 265 double
-1 1 0
-1 -1 0
0 -1 0
0 0 0
1 0 0
1 1 0
-1 0.8960446018578343 0
-1 0.7434589477404765 0
-1 0.5194938470969654 0
-1 0.1907580119505425 0
-1 -0.2917601771005667 0
-1 0.6421872735656408 0
-1 0.9529938521324087 0
-1 0.370847330243156 0
-1 -0.02742518054811738 0
-1 -0.6120093572695218 0
-1 0.827049016191214 0
-0.5000000000020591 -1 0
-0.7500000000003465 -1 0
-0.2500000000010404 -1 0
0 -0.5388812111441448 0
0 -0.2632468046065802 0
0 -0.09848598961815691 0
0 -0.1703266346642055 0
0 -0.7399428154384826 0
0 -0.04294284094408762 0
0 -0.3834316455961385 0
0.07691512336661704 0 0
0.1774939888230186 0 0
0.3090170045711241 0 0
0.4810044418956864 0 0
0.7059056412939517 0 0
0.3892526229269078 0 0
0.2388521423122065 0 0
0.1238372008323799 0 0
0.03588246013217117 0 0
0.8431066136471153 0 0
0.5859253873807453 0 0
1 0.4142135838585781 0
1 0.6817928712277457 0
1 0.1892071405096946 0
0.2917601771053404 1 0
-0.1907580119459797 1 0
-0.5194938470946355 1 0
-0.7434589477394185 1 0
-0.896044601857475 1 0
-0.6421872735640382 1 0
-0.8270490161905597 1 0
-0.9529938521322605 1 0
0.02742518055402743 1 0
-0.3708473302398616 1 0
0.612009357272414 1 0
0.08274926329718021 0.0697010881414519 0
-0.103837136936944 -0.1129324849007478 0
-0.4690182017286599 0.7546200802834864 0
0.4271008383214566 0.1582261537530367 0
-0.2015937139404449 -0.5963696458605717 0
0.003179898076143742 0.6046301220810867 0
-0.6542502339864253 0.05854004486594218 0
-0.837225148313947 0.741864797124406 0
-0.8740232064925345 0.9023665427042082 0
0.3078941624192676 0.09735919286439976 0
0.6398735210889204 0.2466971427730579 0
-0.7313110347005957 0.4668957078939817 0
-0.6851115786704425 0.8477444748944046 0
0.4890713022358109 0.4414136481462249 0
-0.507658336352249 -0.5138548378379447 0
0.01160385906495072 0.09629984659136599 0
-0.6439812276960936 0.6746689180381266 0
-0.2684678545252601 -0.3220800092072902 0
-0.1172045968673477 0.01398158611146345 0
0.1802900748881078 0.1307593138435225 0
0.66265542792677 0.622651960331461 0
0.328169608968763 0.6456146531039174 0
-0.6281146773815914 -0.1911095598671659 0
0.2839678980326906 0.3091160495652057 0
-0.1009123741212844 0.1559656402540771 0
-0.01949540169283313 0.3706643758418114 0
0.03699949489147941 0.2198193666877696 0
-0.244720127442127 -0.1244495225057523 0
-0.5377895081085894 0.4166025483965582 0
-0.4799315845138021 0.5863201301521698 0
-0.19399769238113 0.3199006390942216 0
-0.3664846966745042 0.3629008033602743 0
-0.276666854924098 0.5407847427821667 0
-0.5987620916134013 0.248838702728422 0
0.1141442638790154 0.3447359931003508 0
-0.258884763514519 0.02361238324946599 0
0.1846869496152892 0.4673706669976247 0
-0.4015583901645977 -0.1466910481678619 0
-0.4116934608541417 0.2018500384222849 0
-0.316407728532285 0.7539893881223176 0
-0.7600492099986271 0.3091759456679562 0
-0.2510731369812397 0.167369707718112 0
-0.4307799990212631 0.03320550753223085 0
-0.04894806939619064 -0.105495960552087 0
-0.07842738370167296 -0.1800900625677056 0
-0.03964928666477144 -0.1540083846800337 0
-0.2886303420164195 0.3408320792548027 0
-0.2176440879147747 0.4308736019917032 0
-0.3344223324735896 0.441166523599106 0
-0.2794538182545824 0.4054733160501718 0
0.581036776714935 0.5182128907855013 0
0.514768696123605 0.6623915008393945 0
0.416098978397751 0.5283686196755458 0
0.4997749194089407 0.5699254946846715 0
0.1504735558989176 0.6630574188396463 0
0.1126379017021684 0.5221794293667075 0
0.2434161226679431 0.5356767624272767 0
0.1692735516480314 0.5737503022862898 0
0.7614152077474057 0.7599865708055721 0
0.7987542589413235 0.5455045205072997 0
0.8658623148144877 0.6684010106720165 0
-0.7130093675446952 0.9137245369576571 0
-0.6141102747562019 0.8974722932803719 0
-0.6539131570554921 0.941525285140046 0
-0.8913843934814765 0.635241968228539 0
-0.9308003719205885 0.7412253029561535 0
-0.9426243918736011 0.671250602693469 0
-0.7336683666086936 -0.4665019848779545 0
-0.581915416831584 -0.3280222083913371 0
-0.780900256736539 -0.2210741347642454 0
-0.703270490883203 -0.3361166483776659 0
-0.8865767614962762 0.9542083013747478 0
-0.8141156893008545 0.9317007922218415 0
-0.8409434851657808 0.9637591813789657 0
0.1820688888059285 0.3220413740194944 0
0.2430326961812586 0.4055548589818654 0
0.1417634657463277 0.4066665719575038 0
0.1907140186366117 0.3764296191753173 0
-0.00189255872529105 0.2948054127188732 0
0.08603634555502464 0.2845246401038356 0
0.05098992218635347 0.3664996193390435 0
0.04429385987514395 0.3138299566666284 0
-0.5505827982844844 0.7289173983142797 0
-0.5594010914502663 0.6157008637105915 0
-0.4663688966136631 0.6682717817394844 0
-0.5272213300845031 0.6710506387251847 0
-0.1371654320059796 0.2372462530843223 0
-0.2337080417598988 0.2363007431004892 0
-0.1815158145518958 0.1573939469657958 0
-0.1833167664988867 0.2114321080084185 0
-0.7536871827963931 0.8038489171689125 0
-0.750719456903472 0.6930225261152532 0
-0.6608009237774839 0.7757388048778819 0
-0.7220038184802955 0.7563411856768548 0
-0.3284727992964421 -0.5945947362193766 0
-0.2291112985694134 -0.4623909618033405 0
-0.3824696189987545 -0.4076023569274441 0
-0.3175397245332641 -0.4848629524593836 0
-0.2432139261688418 -0.205053438818021 0
-0.3199373417070203 -0.1304858169145437 0
-0.358044208720857 -0.2339773029551621 0
-0.3058765782930979 -0.1921044164663669 0
-0.09706548881879891 -0.572247339276587 0
-0.1526123377655184 -0.7550808836570878 0
-0.07743455027155548 -0.6970354483268841 0
-0.03648350295580623 0.1166627880756111 0
0.02594595130732797 0.1463183072815278 0
-0.0373161080152983 0.1982953078695384 0
-0.01641798422944796 0.1544254554301837 0
-0.9366191056831402 0.8922573384776168 0
-0.9435345379208673 0.9496415398956116 0
-0.7534914566719773 0.3748007579335274 0
-0.6928452284748359 0.2807516125612621 0
-0.5681011755668087 0.332691053313337 0
-0.6309831593112444 0.443272941293594 0
-0.6597084974479107 0.3585309814186121 0
-0.01930815696938445 0.4658151777187084 0
-0.1487461474528696 0.5839041151109584 0
-0.09915981023337031 0.3551026467014698 0
-0.1216196754378505 0.4590145923086104 0
0.3529171447126816 0.1222782490360292 0
0.3103297496407355 0.05596477380877139 0
0.4629062503578574 0.08106532393480725 0
0.3796369136190078 0.06456034620075837 0
0.261936383226777 0.1135213285628176 0
0.183319754521119 0.056289235926751 0
0.246748845954828 0.05662539519324292 0
0.392064879630122 0.3763597180258706 0
0.3225199848347908 0.4630527868854149 0
-0.06913022390356174 0.2693106884301085 0
-0.3919270474868976 0.5674648623737035 0
-0.2944449326530599 0.6750468102363598 0
-0.383372351386401 0.7600763121979823 0
-0.3840904116740147 0.6645459604094547 0
0.1139098868217663 0.09156001510473258 0
0.08206637903441839 0.04028256699231277 0
0.1269746317553306 0.04792535911912217 0
0.05412165134307008 0.08202652919850927 0
0.0003404538115910796 0.05024916664501378 0
0.04294946916760523 0.04220524525780477 0
-0.8333254528522414 0.2725315705242674 0
-0.8448893085924276 0.4884573806511985 0
-0.8634334084657719 0.3748072416807521 0
0.3226796027211675 0.8236413333467798 0
-0.06709656517730656 0.780998782234957 0
0.1077693510725895 0.8157336697919221 0
-0.6554517296415644 -0.06169693390552233 0
-0.7961402267450475 0.09509581811735592 0
-0.8124927034562943 -0.05510811625706695 0
0.6852622010710533 0.1275621733184824 0
0.7821583180313919 0.3100428779035638 0
0.8308609004702684 0.159737494458454 0
-0.05621280911439536 0.007913468416077984 0
-0.1143465257593982 -0.04894705449225364 0
-0.05502327820710046 -0.04797946618607767 0
0.2302811126532744 0.2140952054421669 0
0.1125263979768523 0.1818676756757293 0
0.1530740637331437 0.2505434753977983 0
-0.1353714757710097 -0.3048135177221772 0
-0.1160127717467098 -0.4301957838742347 0
-0.5157686155810329 -0.754478787040931 0
-0.7505620174289955 -0.7057726424806195 0
-0.3081812211837422 -0.776697012919068 0
-0.5033770284488169 -0.1706377265128849 0
-0.4544452437303956 -0.2881663292345382 0
0.5228457328757566 0.1985175985405104 0
0.5697490420388301 0.3512258352181397 0
0.3703802337150709 0.2305948694367578 0
0.4623321125393012 0.2889464041232186 0
-0.1710162880705994 -0.1212496735239086 0
-0.1848283429201991 0.01915614647186979 0
-0.2539727745929902 -0.05028036036090677 0
-0.1809042919062358 -0.04991923245170159 0
-0.5029485222965961 0.2230758394004388 0
-0.3912986466353071 0.283268461614231 0
-0.4495551003693749 0.3897762253959556 0
-0.4780308103105481 0.307112806648723 0
-0.1136517260698108 0.07848422756723396 0
-0.05150763429223058 0.06413860793354692 0
-0.3402491986719392 0.02778425530972246 0
-0.4237479723558708 -0.05647087264960842 0
-0.33411235757398 -0.05246998808346183 0
-0.6307267497165112 0.1606312939201696 0
-0.5341424534164202 0.04147310932323357 0
-0.4259436989229952 0.1190516737575938 0
-0.5234811268920634 0.1358178195091694 0
-0.8573449617882003 0.8367041394402899 0
-0.7847220773461625 0.8719384273996861 0
0.07062900449414879 0.4428243918704815 0
-0.2581272014860276 0.09641707863524608 0
-0.1836426741954555 0.08850798397812204 0
-0.1556852405087552 -0.203371974986137 0
-0.5289291340180834 -0.0613364948771991 0
-0.6942856423524336 0.5651353421978661 0
-0.7983066036210377 0.5971982383321184 0
-0.4835790244216183 0.856313873781185 0
-0.5779811925979155 0.8163433909418881 0
-0.3273464243138614 0.1839026697913315 0
-0.3086400300469458 0.2616044730219597 0
0.5640435618922003 0.1017238736435117 0
-0.27239183971316 0.8264906119932452 0
-0.3761555815061478 0.8668332495770786 0
-0.9300613291513631 0.822966890629899 0
0.5590096854678636 0.8138243342347029 0
-0.5076005753493171 0.5026395233890526 0
-0.4184441140657372 0.475446676297163 0
-0.597978942604581 0.5329519030954151 0
0.6882881080770249 0.4311772448124498 0
-0.3379939358872958 0.1066175991116889 0
-0.1955652609374883 0.7197784196004454 0
0.07704918423207635 0.1262474479706469 0
-0.7437067612083583 0.2019831799728492 0
0.3023567103179038 0.1714431801549658 0

CELLS 290 1346
2 0 12
2 12 6
2 6 16
2 16 7
2 7 11
2 11 8
2 8 13
2 13 9
2 9 14
2 14 10
2 10 15
2 15 1
2 1 18
2 18 17
2 17 19
2 19 2
2 2 24
2 24 20
2 20 26
2 26 21
2 21 23
2 23 22
2 22 25
2 25 3
2 3 35
2 35 27
2 27 34
2 34 28
2 28 33
2 33 29
2 29 32
2 32 30
2 30 37
2 37 31
2 31 36
2 36 4
2 4 40
2 40 38
2 38 39
2 39 5
2 5 51
2 51 41
2 41 49
2 49 42
2 42 50
2 50 43
2 43 46
2 46 44
2 44 47
2 47 45
2 45 48
2 48 0
4 21 23 97 96
4 22 95 97 23
4 53 96 97 95
4 83 98 101 100
4 82 99 101 98
4 84 100 101 99
4 65 102 105 104
4 72 103 105 102
4 73 104 105 103
4 73 106 109 108
4 57 107 109 106
4 88 108 109 107
4 38 39 112 111
4 5 110 112 39
4 72 111 112 110
4 43 46 115 114
4 44 113 115 46
4 64 114 115 113
4 7 11 118 117
4 8 116 118 11
4 59 117 118 116
4 10 119 122 121
4 66 120 122 119
4 74 121 122 120
4 44 47 125 124
4 45 123 125 47
4 60 124 125 123
4 86 126 129 128
4 75 127 129 126
4 88 128 129 127
4 77 130 133 132
4 78 131 133 130
4 86 132 133 131
4 54 134 137 136
4 68 135 137 134
4 81 136 137 135
4 76 138 141 140
4 82 139 141 138
4 93 140 141 139
4 64 142 145 144
4 59 143 145 142
4 68 144 145 143
4 66 146 149 148
4 56 147 149 146
4 69 148 149 147
4 69 150 153 152
4 79 151 153 150
4 89 152 153 151
4 2 24 156 155
4 20 154 156 24
4 56 155 156 154
4 76 157 160 159
4 67 158 160 157
4 78 159 160 158
4 6 161 162 12
4 60 123 162 161
4 45 48 162 123
4 0 12 162 48
4 63 163 167 166
4 92 164 167 163
4 85 165 167 164
4 80 166 167 165
4 77 168 171 170
4 57 169 171 168
4 84 99 171 169
4 82 170 171 99
4 55 172 175 174
4 61 173 175 172
4 29 32 175 173
4 30 174 175 32
4 61 176 178 173
4 71 177 178 176
4 28 33 178 177
4 29 173 178 33
4 65 104 180 179
4 73 108 180 104
4 88 127 180 108
4 75 179 180 127
4 77 170 181 130
4 82 138 181 170
4 76 159 181 138
4 78 130 181 159
4 54 136 185 184
4 81 182 185 136
4 84 183 185 182
4 91 184 185 183
4 28 177 188 34
4 71 186 188 177
4 52 187 188 186
4 27 34 188 187
4 3 35 191 190
4 27 187 191 35
4 52 189 191 187
4 67 190 191 189
4 9 192 194 13
4 92 163 194 192
4 63 193 194 163
4 8 13 194 193
4 57 106 197 196
4 73 195 197 106
4 41 49 197 195
4 42 196 197 49
4 10 121 200 14
4 74 198 200 121
4 58 199 200 198
4 9 14 200 199
4 62 201 203 202
4 31 36 203 201
4 4 40 203 36
4 38 202 203 40
4 3 204 206 25
4 70 205 206 204
4 53 95 206 205
4 22 25 206 95
4 71 207 209 208
4 75 126 209 207
4 86 131 209 126
4 78 208 209 131
4 21 210 211 26
4 69 147 211 210
4 56 154 211 147
4 20 26 211 154
4 66 119 213 212
4 10 15 213 119
4 1 18 213 15
4 17 212 213 18
4 17 19 214 212
4 2 155 214 19
4 56 146 214 155
4 66 212 214 146
4 89 215 216 152
4 74 120 216 215
4 66 148 216 120
4 69 152 216 148
4 55 217 220 219
4 62 218 220 217
4 65 179 220 218
4 75 219 220 179
4 79 221 224 223
4 53 205 224 221
4 70 222 224 205
4 87 223 224 222
4 85 225 228 165
4 90 226 228 225
4 83 227 228 226
4 80 165 228 227
4 67 157 230 190
4 76 229 230 157
4 70 204 230 229
4 3 190 230 204
4 89 151 233 232
4 79 223 233 151
4 87 231 233 223
4 94 232 233 231
4 85 234 237 225
4 58 235 237 234
4 94 236 237 235
4 90 225 237 236
4 60 238 239 124
4 59 142 239 238
4 64 113 239 142
4 44 124 239 113
4 77 132 240 168
4 86 128 240 132
4 88 107 240 128
4 57 168 240 107
4 76 140 242 229
4 93 241 242 140
4 87 222 242 241
4 70 229 242 222
4 69 210 243 150
4 21 96 243 210
4 53 221 243 96
4 79 150 243 221
4 89 232 244 215
4 94 235 244 232
4 58 198 244 235
4 74 215 244 198
4 59 116 246 143
4 8 193 246 116
4 63 245 246 193
4 68 143 246 245
4 54 247 248 134
4 43 114 248 247
4 64 144 248 114
4 68 134 248 144
4 82 98 250 139
4 83 226 250 98
4 90 249 250 226
4 93 139 250 249
4 55 174 251 217
4 30 37 251 174
4 31 201 251 37
4 62 217 251 201
4 43 247 253 50
4 54 184 253 247
4 91 252 253 184
4 42 50 253 252
4 60 161 254 238
4 6 16 254 161
4 7 117 254 16
4 59 238 254 117
4 72 110 255 103
4 5 51 255 110
4 41 195 255 51
4 73 103 255 195
4 81 256 257 182
4 80 227 257 256
4 83 100 257 227
4 84 182 257 100
4 80 256 258 166
4 81 135 258 256
4 68 245 258 135
4 63 166 258 245
4 72 102 259 111
4 65 218 259 102
4 62 202 259 218
4 38 111 259 202
4 93 249 260 241
4 90 236 260 249
4 94 231 260 236
4 87 241 260 231
4 57 196 261 169
4 42 252 261 196
4 91 183 261 252
4 84 169 261 183
4 78 158 262 208
4 67 189 262 158
4 52 186 262 189
4 71 208 262 186
4 58 234 263 199
4 85 164 263 234
4 92 192 263 164
4 9 199 263 192
4 61 172 264 176
4 55 219 264 172
4 75 207 264 219
4 71 176 264 207

CELL_TYPES 290
3
3
3
3
3
3
3
3
3
3
3
3
3
3
3
3
3
3
3
3
3
3
3
3
3
3
3
3
3
3
3
3
3
3
3
3
3
3
3
3
3
3
3
3
3
3
3
3
3
3
3
3
9
9
9
9
9
9
9
9
9
9
9
9
9
9
9
9
9
9
9
9
9
9
9
9
9
9
9
9
9
9
9
9
9
9
9
9
9
9
9
9
9
9
9
9
9
9
9
9
9
9
9
9
9
9
9
9
9
9
9
9
9
9
9
9
9
9
9
9
9
9
9
9
9
9
9
9
9
9
9
9
9
9
9
9
9
9
9
9
9
9
9
9
9
9
9
9
9
9
9
9
9
9
9
9
9
9
9
9
9
9
9
9
9
9
9
9
9
9
9
9
9
9
9
9
9
9
9
9
9
9
9
9
9
9
9
9
9
9
9
9
9
9
9
9
9
9
9
9
9
9
9
9
9
9
9
9
9
9
9
9
9
9
9
9
9
9
9
9
9
9
9
9
9
9
9
9
9
9
9
9
9
9
9
9
9
9
9
9
9
9
9
9
9
9
9
9
9
9
9
9
9
9
9
9
9
9
9
9
9
9
9
9
9
9
9
9
9
9
9
9
9
9
9
9
9
9
9
9
9
9
9
9
9
9
9
9
9
9

CELL_DATA 290
SCALARS CellEntityIds int 1
LOOKUP_TABLE default
9
9
9
9
9
9
9
9
9
9
9
9
9
9
9
9
8
8
8
8
8
8
8
8
8
8
8
8
8
8
8
8
8
8
8
8
9
9
9
9
9
9
9
9
9
9
9
9
9
9
9
9
13
13
13
13
13
13
13
13
13
13
13
13
13
13
13
13
13
13
13
13
13
13
13
13
13
13
13
13
13
13
13
13
13
13
13
13
13
13
13
13
13
13
13
13
13
13
13
13
13
13
13
13
13
13
13
13
13
13
13
13
13
13
13
13
13
13
13
13
13
13
13
13
13
13
13
13
13
13
13
13
13
13
13
13
13
13
13
13
13
13
13
13
13
13
13
13
13
13
13
13
13
13
13
13
13
13
13
13
13
13
13
13
13
13
13
13
13
13
13
13
13
13
13
13
13
13
13
13
13
13
13
13
13
13
13
13
13
13
13
13
13
13
13
13
13
13
13
13
13
13
13
13
13
13
13
13
13
13
13
13
13
13
13
13
13
13
13
13
13
13
13
13
13
13
13
13
13
13
13
13
13
13
13
13
13
13
13
13
13
13
13
13
13
13
13
13
13
13
13
13
13
13
13
13
13
13
13
13
13
13
13
13
13
13
13
13
13
13
13
13
13
13
13
13
13
13
13
13
13
13
13
13
13
13
13
13
13
13
