# vtk DataFile Version 2.0
corner_mesh, Created by Gmsh
ASCII
DATASET UNSTRUCTURED_GRID
POINTS 245 double
-1 1 0
-1 -1 0
0 -1 0
0 0 0
1 0 0
1 1 0
-1 0.8960446018578343 0
-1 0.7434589477404765 0
-1 0.5194938470969654 0
-1 0.1907580119505425 0
-1 -0.2917601771005667 0
-1 -0.02742518054811738 0
-1 0.6421872735656408 0
-1 0.9529938521324087 0
-1 0.370847330243156 0
-1 -0.6120093572695218 0
-1 0.827049016191214 0
-0.5000000000020591 -1 0
-0.2500000000010404 -1 0
-0.7500000000003465 -1 0
0 -0.5388812111441448 0
0 -0.2632468046065802 0
0 -0.09848598961815691 0
0 -0.1703266346642055 0
0 -0.04294284094408762 0
0 -0.3834316455961385 0
0 -0.7399428154384826 0
0.09848598961763942 0 0
0.2632468046049976 0 0
0.5388812111412582 0 0
0.3834316455937179 0 0
0.1703266346632517 0 0
0.739942815437474 0 0
0.04294284094386188 0 0
1 0.499999999998694 0
1 0.2499999999994121 0
1 0.7499999999993416 0
0.2917601771053404 1 0
-0.1907580119459797 1 0
-0.5194938470946355 1 0
-0.7434589477394185 1 0
-0.896044601857475 1 0
-0.6421872735640382 1 0
-0.8270490161905597 1 0
-0.9529938521322605 1 0
0.02742518055402743 1 0
-0.3708473302398616 1 0
0.612009357272414 1 0
-0.1020481748193298 -0.107321227845108 0
0.09033671205371892 0.1280094112175809 0
-0.7474337709849269 0.462827044476798 0
-0.6853402443786603 0.8392224540153902 0
-0.6524392511736341 0.1332049747363251 0
-0.0232027202081633 0.6408980532727968 0
0.6476530316225338 0.4113834936739397 0
-0.4272561008752077 -0.5754888899740808 0
-0.8737916103122425 0.9008190276529385 0
-0.4541481953641965 0.723568127440148 0
-0.8391281338890775 0.7364743344798557 0
-0.2323900891677678 -0.4296218804041503 0
0.3869169106427117 0.2091399423328089 0
-0.1160758722687746 0.0002359808985385264 0
-0.5361541334728753 -0.2712006463061229 0
0.3964428354117478 0.3866963124782204 0
-0.6583195926841295 0.6477815637417595 0
-0.2585773419088399 -0.2698983481933124 0
0.241718687809319 0.1711523780995779 0
0.3063533672658818 0.6262103698844963 0
0.03657446468336709 0.2556775356829423 0
-0.5788066759408214 0.4711854211967416 0
0.6250391728963589 0.6690251175175885 0
-0.2574127337444622 -0.06088015706874448 0
0.1867051038797161 0.3653463558674394 0
-0.4086946767441629 0.5204760037125513 0
-0.281810545694474 0.1152406274374724 0
-0.370043316926902 0.3508562695694316 0
-0.7389097524110254 0.2731079029043783 0
0.000357469637356523 0.4083330412051354 0
-0.003521818851400054 0.09129290930486085 0
-0.2960145656460543 0.7470452699425398 0
-0.4136577950446825 0.1457738382677159 0
-0.5449371874993528 0.274744909179664 0
-0.1092050444005594 0.1550975843076229 0
-0.2324729097210423 0.5728998945087838 0
-0.7668279229015013 0.003244282242321156 0
-0.2017074088054186 0.3485685802669918 0
-0.5281822800894871 -0.01817615289875948 0
-0.3183561509146228 0.2337719485493662 0
-0.8364370533729224 -0.09893597516852233 0
-0.8605246595887777 0.06876136640058661 0
-0.9074540540682885 -0.02408626819118109 0
-0.0477170336430125 -0.1043247101909806 0
-0.07958851832376933 -0.1704432276764409 0
-0.0392951844909739 -0.1511709516788311 0
-0.2244662073374545 -0.6044385636797691 0
-0.1497338982029987 -0.4652390600720422 0
-0.3003617186443283 -0.4692297350053973 0
-0.2233255433660727 -0.5134852731102607 0
-0.8943099910237262 0.6310171352766211 0
-0.9314064356954255 0.7392301580978036 0
-0.9435439684130824 0.6693196403157221 0
-0.7128319444930324 0.9098534892547065 0
-0.6134794841422093 0.8897676645616339 0
-0.6537017144074914 0.9380647443241446 0
-0.8863997146031656 0.95354422076279 0
-0.8139451321004837 0.9301000697249312 0
-0.8408137508005882 0.9630809835196597 0
-0.1097118881563053 -0.05341123295374307 0
-0.1781312967295897 -0.01554503746639339 0
-0.1760640120414777 -0.09715191963636652 0
-0.1561493025171626 -0.05581666021833188 0
0.1041550439922913 0.296605551039143 0
0.0894582022876427 0.4068376802110682 0
0.01199099187957517 0.3249985459285744 0
0.07050327753906252 0.3427497602407268 0
-0.755009297109708 0.7962624001000496 0
-0.7576821710438061 0.6809694135159524 0
-0.6638555320190888 0.7596825104527144 0
-0.726067461195218 0.744057114877173 0
-0.7187977025388046 0.5514147737420934 0
-0.6600797930835339 0.4584161169815371 0
-0.604919255802879 0.554583555126953 0
-0.6612064395151357 0.5231879671118888 0
-0.3507269440565298 0.1174424995177066 0
-0.2932053235482321 0.1799479661002239 0
-0.3690274248101758 0.1969589776301475 0
-0.3378340217778291 0.1643246177797411 0
0.3772747737878769 0.4945043046911461 0
0.2242938604510322 0.4885313785910748 0
0.2993441018382645 0.3758637235389167 0
0.298799532452203 0.455721275114867 0
-0.7043072451771138 0.1954869087026892 0
-0.5979270864497562 0.1894648732625732 0
-0.6490440219101601 0.2841882160330397 0
-0.6486264959019781 0.2242110513301001 0
-0.2957884116120784 0.3638807753027939 0
-0.3476484535669682 0.2871001846316525 0
-0.2646881126086457 0.2740214288024814 0
-0.3003732942612169 0.3092545865866986 0
-0.7110119471441149 0.07844103679703635 0
-0.6639061740806489 -0.02859399141611359 0
-0.5964884141023676 0.07291292618097685 0
-0.6539758354547098 0.03982035609233563 0
-0.6949355718275237 -0.498760543172436 0
-0.5050804076953336 -0.3950347210262705 0
-0.7481012242127488 -0.2768208072702124 0
-0.6506824449969671 -0.3862743114718941 0
-0.9365147178874377 0.8913798960983473 0
-0.9434501049701752 0.9492480129182224 0
-0.321792717693727 0.5450481160628131 0
-0.2654790629554352 0.675251093160755 0
-0.3629402268571564 0.7426160342692351 0
-0.4318689348831622 0.6183506552052008 0
-0.3458872956597497 0.6433705384662075 0
-0.7526778373599845 0.3669891953619058 0
-0.5625800953303237 0.3827002934941602 0
-0.6548246751122987 0.3717321551125802 0
0.3954073266601509 0.2820729612673012 0
0.2196394020553128 0.2584017876663367 0
0.324737644942863 0.1913400643805509 0
0.307489806993988 0.2792053221758381 0
-0.4476507992692315 0.3213059715862827 0
-0.4733175387497769 0.1988376366495038 0
-0.4102967366654549 0.2509192847546731 0
-0.05710759111227674 0.003658683372254562 0
-0.05386529489538758 -0.0499247411431189 0
0.1194008806500595 0.6513730248592524 0
0.3107723942679547 0.8204660564873996 0
-0.0714128435141714 0.7896411550205635 0
0.09612680218998038 0.8161909826719868 0
-0.2615640355847419 0.8245224889485987 0
-0.4775492999448401 0.8412775963366134 0
-0.3670291030782571 0.8578128551910962 0
0.2587652714559494 0.08625800128214602 0
0.4395144379728542 0.152753364803811 0
0.3538307938224824 0.1030262577815634 0
-0.8426093464548403 0.2455997680777779 0
-0.8517872755039676 0.4823424808185472 0
-0.8656373693090474 0.3645451040911718 0
0.1610672568889851 0.1499696831851557 0
0.1016372299682315 0.06442788631937255 0
0.1731323091863549 0.07499191588889594 0
-0.1399230429992718 -0.2711058222646573 0
-0.2438504494412875 -0.3647165411168814 0
-0.1294838083212541 -0.3725244549413296 0
-0.3868822383501812 -0.05078725826946032 0
-0.5407949176815274 -0.1507826142839934 0
-0.3869999880964384 -0.2701168731988403 0
-0.2689662176432753 -0.1689900554103174 0
-0.3951735331761268 -0.1587092223383919 0
-0.3887995254968175 0.430706161386842 0
-0.2113840323541657 0.4679532212058828 0
-0.3035681170545418 0.4499975106118614 0
-0.4751518869134855 -0.770682418854006 0
-0.235377579017728 -0.7786244098596757 0
0.8137510651392754 0.4467249400887709 0
0.6206919250378808 0.2327158941035107 0
0.7946296438132374 0.2307358937286773 0
-0.09314676747870393 0.3865416732934111 0
-0.1506014518201906 0.2515800728048337 0
-0.03230490462826194 0.2164935688655393 0
-0.06701293554453809 0.2936500131820581 0
-0.005591032702651724 0.5136702366359754 0
-0.1374111896050801 0.6095469688199185 0
-0.1124234500020341 0.4934246450638905 0
0.03292017826301465 0.1071176303391127 0
-0.004398091846690369 0.05322940605351517 0
0.04429392970563083 0.05568865158676668 0
-0.2773919344176715 0.03912154836935602 0
-0.4582407891172353 0.07773657588143104 0
-0.3691874088815758 0.04492922071997291 0
0.1105317143808491 0.5135985007018656 0
-0.7306056904180455 -0.7189643906288149 0
-0.1192712668945473 0.06433955424288385 0
-0.2052751586564834 0.1330396920033486 0
-0.1938457418661112 0.05380986494930756 0
-0.8576494123210504 0.8337071000890715 0
-0.7849766913522895 0.8680297876186172 0
-0.5497738847216244 0.6911256057280281 0
-0.5770876110120883 0.7981668394694368 0
-0.8077428768024545 0.5882041193869983 0
-0.3600809516274164 -0.3788799461635324 0
-0.5325468801916191 0.1339446418876309 0
-0.4956522104720575 0.4960506078676627 0
-0.5217924913221601 0.5900417203991213 0
-0.9302777249468136 0.8214284652970822 0
0.6440793574642447 0.565936312544653 0
0.7310004556827295 0.774185143702615 0
0.8049668831881418 0.6384528706465087 0
0.5095067409663728 0.3958522163171108 0
0.4986720755808431 0.6635782672847207 0
0.502458198955119 0.5279691409737778 0
-0.1618933719483528 -0.1766062132538938 0
-0.7833862322093189 0.1478268654328577 0
0.06689685552069542 0.191719674406237 0
0.1381677261447415 0.226121357253744 0
-0.4740978161294501 0.4061330654407841 0
-0.03805220022760979 0.1140850883032072 0
-0.05568685186513489 0.05987302796761959 0
-0.2280179788494816 0.2106637546908724 0
-0.7005692047697489 -0.1410223558333502 0
0.5444833198865592 0.8183545757657312 0
0.005800585924876952 0.1572421309277882 0
-0.1842097638435282 0.7300734488509616 0
0.4918672583696462 0.2608581472501481 0

CELLS 268 1244
2 0 13
2 13 6
2 6 16
2 16 7
2 7 12
2 12 8
2 8 14
2 14 9
2 9 11
2 11 10
2 10 15
2 15 1
2 1 19
2 19 17
2 17 18
2 18 2
2 2 26
2 26 20
2 20 25
2 25 21
2 21 23
2 23 22
2 22 24
2 24 3
2 3 33
2 33 27
2 27 31
2 31 28
2 28 30
2 30 29
2 29 32
2 32 4
2 4 35
2 35 34
2 34 36
2 36 5
2 5 47
2 47 37
2 37 45
2 45 38
2 38 46
2 46 39
2 39 42
2 42 40
2 40 43
2 43 41
2 41 44
2 44 0
4 9 11 90 89
4 10 88 90 11
4 84 89 90 88
4 21 23 93 92
4 22 91 93 23
4 48 92 93 91
4 55 94 97 96
4 20 95 97 94
4 59 96 97 95
4 7 12 100 99
4 8 98 100 12
4 58 99 100 98
4 39 42 103 102
4 40 101 103 42
4 51 102 103 101
4 40 43 106 105
4 41 104 106 43
4 56 105 106 104
4 48 107 110 109
4 61 108 110 107
4 71 109 110 108
4 68 111 114 113
4 72 112 114 111
4 77 113 114 112
4 51 115 118 117
4 58 116 118 115
4 64 117 118 116
4 64 119 122 121
4 50 120 122 119
4 69 121 122 120
4 80 123 126 125
4 74 124 126 123
4 87 125 126 124
4 63 127 130 129
4 67 128 130 127
4 72 129 130 128
4 76 131 134 133
4 52 132 134 131
4 81 133 134 132
4 85 135 138 137
4 75 136 138 135
4 87 137 138 136
4 52 139 142 141
4 84 140 142 139
4 86 141 142 140
4 10 143 146 145
4 55 144 146 143
4 62 145 146 144
4 6 147 148 13
4 56 104 148 147
4 41 44 148 104
4 0 13 148 44
4 73 149 153 152
4 83 150 153 149
4 79 151 153 150
4 57 152 153 151
4 50 154 156 120
4 76 133 156 154
4 81 155 156 133
4 69 120 156 155
4 60 157 160 159
4 63 129 160 157
4 72 158 160 129
4 66 159 160 158
4 75 161 163 136
4 81 162 163 161
4 80 125 163 162
4 87 136 163 125
4 48 91 165 107
4 22 24 165 91
4 3 164 165 24
4 61 107 165 164
4 53 166 169 168
4 67 167 169 166
4 37 45 169 167
4 38 168 169 45
4 57 151 172 171
4 79 170 172 151
4 38 46 172 170
4 39 171 172 46
4 60 159 175 174
4 66 173 175 159
4 28 30 175 173
4 29 174 175 30
4 9 176 178 14
4 76 154 178 176
4 50 177 178 154
4 8 14 178 177
4 28 173 181 31
4 66 179 181 173
4 49 180 181 179
4 27 31 181 180
4 21 182 184 25
4 65 183 184 182
4 59 95 184 183
4 20 25 184 95
4 71 185 189 188
4 86 186 189 185
4 62 187 189 186
4 65 188 189 187
4 83 149 192 191
4 73 190 192 149
4 75 135 192 190
4 85 191 192 135
4 55 193 194 94
4 17 18 194 193
4 2 26 194 18
4 20 94 194 26
4 4 35 197 32
4 34 195 197 35
4 54 196 197 195
4 29 32 197 196
4 77 198 201 113
4 85 199 201 198
4 82 200 201 199
4 68 113 201 200
4 83 191 204 203
4 85 198 204 191
4 77 202 204 198
4 53 203 204 202
4 3 33 207 206
4 27 180 207 33
4 49 205 207 180
4 78 206 207 205
4 71 208 210 185
4 74 123 210 208
4 80 209 210 123
4 86 185 210 209
4 77 112 211 202
4 72 128 211 112
4 67 166 211 128
4 53 202 211 166
4 55 143 212 193
4 10 15 212 143
4 1 19 212 15
4 17 193 212 19
4 74 208 215 214
4 71 108 215 208
4 61 213 215 108
4 82 214 215 213
4 56 216 217 105
4 58 115 217 216
4 51 101 217 115
4 40 105 217 101
4 51 117 219 102
4 64 218 219 117
4 57 171 219 218
4 39 102 219 171
4 50 119 220 177
4 64 116 220 119
4 58 98 220 116
4 8 177 220 98
4 62 144 221 187
4 55 96 221 144
4 59 183 221 96
4 65 187 221 183
4 52 141 222 132
4 86 209 222 141
4 80 162 222 209
4 81 132 222 162
4 64 121 224 218
4 69 223 224 121
4 73 152 224 223
4 57 218 224 152
4 56 147 225 216
4 6 16 225 147
4 7 99 225 16
4 58 216 225 99
4 70 226 228 227
4 54 195 228 226
4 34 36 228 195
4 5 227 228 36
4 63 229 231 127
4 54 226 231 229
4 70 230 231 226
4 67 127 231 230
4 48 109 232 92
4 71 188 232 109
4 65 182 232 188
4 21 92 232 182
4 76 176 233 131
4 9 89 233 176
4 84 139 233 89
4 52 131 233 139
4 68 234 235 111
4 49 179 235 234
4 66 158 235 179
4 72 111 235 158
4 75 190 236 161
4 73 223 236 190
4 69 155 236 223
4 81 161 236 155
4 61 164 238 213
4 3 206 238 164
4 78 237 238 206
4 82 213 238 237
4 87 124 239 137
4 74 214 239 124
4 82 199 239 214
4 85 137 239 199
4 62 186 240 145
4 86 140 240 186
4 84 88 240 140
4 10 145 240 88
4 70 227 241 230
4 5 47 241 227
4 37 167 241 47
4 67 230 241 167
4 78 205 242 237
4 49 234 242 205
4 68 200 242 234
4 82 237 242 200
4 79 150 243 170
4 83 203 243 150
4 53 168 243 203
4 38 170 243 168
4 54 229 244 196
4 63 157 244 229
4 60 174 244 157
4 29 196 244 174

CELL_TYPES 268
3
3
3
3
3
3
3
3
3
3
3
3
3
3
3
3
3
3
3
3
3
3
3
3
3
3
3
3
3
3
3
3
3
3
3
3
3
3
3
3
3
3
3
3
3
3
3
3
9
9
9
9
9
9
9
9
9
9
9
9
9
9
9
9
9
9
9
9
9
9
9
9
9
9
9
9
9
9
9
9
9
9
9
9
9
9
9
9
9
9
9
9
9
9
9
9
9
9
9
9
9
9
9
9
9
9
9
9
9
9
9
9
9
9
9
9
9
9
9
9
9
9
9
9
9
9
9
9
9
9
9
9
9
9
9
9
9
9
9
9
9
9
9
9
9
9
9
9
9
9
9
9
9
9
9
9
9
9
9
9
9
9
9
9
9
9
9
9
9
9
9
9
9
9
9
9
9
9
9
9
9
9
9
9
9
9
9
9
9
9
9
9
9
9
9
9
9
9
9
9
9
9
9
9
9
9
9
9
9
9
9
9
9
9
9
9
9
9
9
9
9
9
9
9
9
9
9
9
9
9
9
9
9
9
9
9
9
9
9
9
9
9
9
9
9
9
9
9
9
9
9
9
9
9
9
9
9
9
9
9
9
9
9
9
9
9
9
9

CELL_DATA 268
SCALARS CellEntityIds int 1
LOOKUP_TABLE default
9
9
9
9
9
9
9
9
9
9
9
9
9
9
9
9
8
8
8
8
8
8
8
8
8
8
8
8
8
8
8
8
9
9
9
9
9
9
9
9
9
9
9
9
9
9
9
9
13
13
13
13
13
13
13
13
13
13
13
13
13
13
13
13
13
13
13
13
13
13
13
13
13
13
13
13
13
13
13
13
13
13
13
13
13
13
13
13
13
13
13
13
13
13
13
13
13
13
13
13
13
13
13
13
13
13
13
13
13
13
13
13
13
13
13
13
13
13
13
13
13
13
13
13
13
13
13
13
13
13
13
13
13
13
13
13
13
13
13
13
13
13
13
13
13
13
13
13
13
13
13
13
13
13
13
13
13
13
13
13
13
13
13
13
13
13
13
13
13
13
13
13
13
13
13
13
13
13
13
13
13
13
13
13
13
13
13
13
13
13
13
13
13
13
13
13
13
13
13
13
13
13
13
13
13
13
13
13
13
13
13
13
13
13
13
13
13
13
13
13
13
13
13
13
13
13
13
13
13
13
13
13
13
13
13
13
13
13
13
13
13
13
13
13
13
13
13
13
13
13
13
13
13
13
13
13
13
13
13
13
13
13
13
13
13
13
13
13
